Program Version,EnergyPlus, Version 25.1.0-68a4a7c774, YMD=2025.06.06 00:47
1,5,Environment Title[],Latitude[deg],Longitude[deg],Time Zone[],Elevation[m]
2,8,Day of Simulation[],Month[],Day of Month[],DST Indicator[1=yes 0=no],Hour[],StartMinute[],EndMinute[],DayType
3,5,Cumulative Day of Simulation[],Month[],Day of Month[],DST Indicator[1=yes 0=no],DayType  ! When Daily Report Variables Requested
4,2,Cumulative Days of Simulation[],Month[]  ! When Monthly Report Variables Requested
5,1,Cumulative Days of Simulation[] ! When Run Period Report Variables Requested
6,1,Calendar Year of Simulation[] ! When Annual Report Variables Requested
7,1,Environment,Site Outdoor Air Drybulb Temperature [C] !Hourly
8,1,SPACE1-1 LIGHTS 1,Lights Electricity Energy [J] !Hourly
129,1,SPACE2-1 LIGHTS 1,Lights Electricity Energy [J] !Hourly
166,1,SPACE3-1 LIGHTS 1,Lights Electricity Energy [J] !Hourly
203,1,SPACE4-1 LIGHTS 1,Lights Electricity Energy [J] !Hourly
240,1,SPACE5-1 LIGHTS 1,Lights Electricity Energy [J] !Hourly
277,1,SPACE1-1 ELECEQ 1,Electric Equipment Electricity Energy [J] !Hourly
350,1,SPACE2-1 ELECEQ 1,Electric Equipment Electricity Energy [J] !Hourly
375,1,SPACE3-1 ELECEQ 1,Electric Equipment Electricity Energy [J] !Hourly
400,1,SPACE4-1 ELECEQ 1,Electric Equipment Electricity Energy [J] !Hourly
425,1,SPACE5-1 ELECEQ 1,Electric Equipment Electricity Energy [J] !Hourly
450,1,PLENUM-1,Zone Windows Total Heat Gain Energy [J] !Hourly
451,1,SPACE1-1,Zone Windows Total Heat Gain Energy [J] !Hourly
452,1,SPACE2-1,Zone Windows Total Heat Gain Energy [J] !Hourly
453,1,SPACE3-1,Zone Windows Total Heat Gain Energy [J] !Hourly
454,1,SPACE4-1,Zone Windows Total Heat Gain Energy [J] !Hourly
455,1,SPACE5-1,Zone Windows Total Heat Gain Energy [J] !Hourly
456,1,WF-1,Surface Window Transmitted Solar Radiation Energy [J] !Hourly
457,1,DF-1,Surface Window Transmitted Solar Radiation Energy [J] !Hourly
458,1,WR-1,Surface Window Transmitted Solar Radiation Energy [J] !Hourly
459,1,WB-1,Surface Window Transmitted Solar Radiation Energy [J] !Hourly
460,1,DB-1,Surface Window Transmitted Solar Radiation Energy [J] !Hourly
461,1,WL-1,Surface Window Transmitted Solar Radiation Energy [J] !Hourly
462,1,WALL-1PF,Surface Outside Face Solar Radiation Heat Gain Energy [J] !Hourly
463,1,WALL-1PR,Surface Outside Face Solar Radiation Heat Gain Energy [J] !Hourly
464,1,WALL-1PB,Surface Outside Face Solar Radiation Heat Gain Energy [J] !Hourly
465,1,WALL-1PL,Surface Outside Face Solar Radiation Heat Gain Energy [J] !Hourly
466,1,TOP-1,Surface Outside Face Solar Radiation Heat Gain Energy [J] !Hourly
467,1,FRONT-1,Surface Outside Face Solar Radiation Heat Gain Energy [J] !Hourly
468,1,RIGHT-1,Surface Outside Face Solar Radiation Heat Gain Energy [J] !Hourly
469,1,BACK-1,Surface Outside Face Solar Radiation Heat Gain Energy [J] !Hourly
470,1,LEFT-1,Surface Outside Face Solar Radiation Heat Gain Energy [J] !Hourly
471,1,PLENUM-1,Zone Air Temperature [C] !Hourly
606,1,SPACE1-1,Zone Air Temperature [C] !Hourly
669,1,SPACE2-1,Zone Air Temperature [C] !Hourly
732,1,SPACE3-1,Zone Air Temperature [C] !Hourly
795,1,SPACE4-1,Zone Air Temperature [C] !Hourly
858,1,SPACE5-1,Zone Air Temperature [C] !Hourly
End of Data Dictionary
1,RUN PERIOD 1,  41.98, -87.92,  -6.00, 201.00
2,1, 6, 1, 0, 1, 0.00,60.00,Tuesday
7,16.300000000000004
8,285120.0
129,123120.00000000001
166,285120.0
203,123120.00000000001
240,533520.0000000001
277,76032.0
350,32832.0
375,76032.0
400,32832.0
425,142272.0
450,0.0
451,0.0
452,0.0
453,0.0
454,0.0
455,0.0
456,0.0
457,0.0
458,0.0
459,0.0
460,0.0
461,0.0
462,0.0
463,0.0
464,0.0
465,0.0
466,0.0
467,0.0
468,0.0
469,0.0
470,0.0
471,21.905932175392746
606,20.428534079865365
669,20.468291484975307
732,20.414025780816477
795,20.603428785503432
858,21.140233298617506
2,1, 6, 1, 0, 2, 0.00,60.00,Tuesday
7,18.162499999999998
8,285120.0
129,123120.00000000001
166,285120.0
203,123120.00000000001
240,533520.0000000001
277,76032.0
350,32832.0
375,76032.0
400,32832.0
425,142272.0
450,0.0
451,0.0
452,0.0
453,0.0
454,0.0
455,0.0
456,0.0
457,0.0
458,0.0
459,0.0
460,0.0
461,0.0
462,0.0
463,0.0
464,0.0
465,0.0
466,0.0
467,0.0
468,0.0
469,0.0
470,0.0
471,21.307594957126927
606,20.466349277715672
669,20.473919240444637
732,20.455533971326982
795,20.55159468757846
858,20.964036785862103
2,1, 6, 1, 0, 3, 0.00,60.00,Tuesday
7,18.2
8,285120.0
129,123120.00000000001
166,285120.0
203,123120.00000000001
240,533520.0000000001
277,76032.0
350,32832.0
375,76032.0
400,32832.0
425,142272.0
450,0.0
451,0.0
452,0.0
453,0.0
454,0.0
455,0.0
456,0.0
457,0.0
458,0.0
459,0.0
460,0.0
461,0.0
462,0.0
463,0.0
464,0.0
465,0.0
466,0.0
467,0.0
468,0.0
469,0.0
470,0.0
471,20.948842371716296
606,20.451278180052128
669,20.45785763096315
732,20.443554969236587
795,20.502615715883536
858,20.856063102734407
2,1, 6, 1, 0, 4, 0.00,60.00,Tuesday
7,18.2625
8,285120.0
129,123120.00000000001
166,285120.0
203,123120.00000000001
240,533520.0000000001
277,76032.0
350,32832.0
375,76032.0
400,32832.0
425,142272.0
450,0.0
451,0.0
452,0.0
453,0.0
454,0.0
455,0.0
456,0.0
457,0.0
458,0.0
459,0.0
460,0.0
461,0.0
462,0.0
463,0.0
464,0.0
465,0.0
466,0.0
467,0.0
468,0.0
469,0.0
470,0.0
471,20.739766803340427
606,20.436112497063124
669,20.44441939766669
732,20.430358293295743
795,20.470226756949547
858,20.78067437582844
2,1, 6, 1, 0, 5, 0.00,60.00,Tuesday
7,17.9875
8,285120.0
129,123120.00000000001
166,285120.0
203,123120.00000000001
240,533520.0000000001
277,76032.0
350,32832.0
375,76032.0
400,32832.0
425,142272.0
450,0.0
451,0.0
452,31085.51671857553
453,46949.50945648616
454,11995.737368664937
455,0.0
456,135761.22479311173
457,55543.67549392834
458,187855.21257197522
459,376835.8462245804
460,91031.17891082208
461,152437.48528221296
462,385959.4124709731
463,243735.6716475326
464,538156.5300859552
465,197739.58798738237
466,16345562.631296143
467,894257.0335324713
468,731207.0149425975
469,1539480.565573757
470,593218.7639621468
471,20.59960330942185
606,20.42684152283672
669,20.454101945205018
732,20.442946133114674
795,20.463420090407965
858,20.72843117546871
2,1, 6, 1, 0, 6, 0.00,60.00,Tuesday
7,16.737500000000004
8,285120.0
129,123120.00000000001
166,285120.0
203,123120.00000000001
240,533520.0000000001
277,76032.0
350,32832.0
375,76032.0
400,32832.0
425,142272.0
450,0.0
451,0.0
452,312794.15675063187
453,563330.0872831605
454,235462.12484877225
455,0.0
456,504151.21224363835
457,205817.11073590783
458,635047.2277526523
459,1161904.995553893
460,280949.3506601458
461,563599.200311474
462,1426976.333355126
463,821897.0924383581
464,1669744.2626073179
465,731092.3127161624
466,60348653.36848375
467,3309440.2679453464
468,2465691.2773150736
469,4776563.505327492
470,2193276.9381484864
471,20.514643270903996
606,20.423837337956375
669,20.52834297069061
732,20.511095326017543
795,20.518479773777322
858,20.70111012617486
2,1, 6, 1, 0, 7, 0.00,60.00,Tuesday
7,15.787500000000001
8,285120.0
129,123120.00000000001
166,285120.0
203,123120.00000000001
240,533520.0000000001
277,76032.0
350,32832.0
375,76032.0
400,32832.0
425,142272.0
450,0.0
451,420409.24886047316
452,1909747.6266917791
453,3457846.5744096944
454,864885.3611883499
455,0.0
456,1236450.8759884306
457,486388.4030985021
458,2254339.291362061
459,3595816.4126079828
460,869721.463677032
461,1288323.9309356094
462,3264606.3484961875
463,2856163.158421994
464,5186941.016930226
465,1671194.2133252826
466,154902163.61174655
467,7689957.829149683
468,8568489.475265978
469,14838052.581218434
470,5013582.639975846
471,20.817336978463356
606,22.148206496245265
669,22.159420616850262
732,22.156134680127245
795,22.157901535863516
858,22.10644235567753
2,1, 6, 1, 0, 8, 0.00,60.00,Tuesday
7,16.287499999999998
8,285120.0
129,123120.00000000001
166,285120.0
203,123120.00000000001
240,533520.0000000001
277,76032.0
350,32832.0
375,76032.0
400,32832.0
425,142272.0
450,0.0
451,2764236.9350917973
452,8471072.214498248
453,11432649.709983487
454,2061728.5880300042
455,0.0
456,2866851.3523333864
457,1014664.3827934051
458,8353181.404477727
459,9378359.219402494
460,2315801.383810457
461,2413889.7330052564
462,6136250.063301751
463,10328464.37980612
464,14493760.73160284
465,3131261.056739092
466,412249093.740191
467,15229515.333174687
468,30985393.13941835
469,41461659.7977819
470,9393783.17021727
471,21.208724397771135
606,22.199415041913998
669,22.19982352133149
732,22.199937847408346
795,22.199124937447476
858,22.20054022548094
2,1, 6, 1, 0, 9, 0.00,60.00,Tuesday
7,18.074999999999996
8,5132160.000000001
129,2216160.0
166,5132160.000000001
203,2216160.0
240,9603360.0
277,1520640.0000000002
350,656640.0
375,1520640.0000000002
400,656640.0
425,2845440.0000000005
450,0.0
451,4337089.176525184
452,14466103.902888753
453,10842112.600903379
454,2290819.973550827
455,0.0
456,3790867.827574065
457,1198211.9596092976
458,13845056.028548507
459,8552386.079950111
460,2224116.347724789
461,2503514.540996489
462,6408798.472552528
463,17040932.664883297
464,16428953.981073687
465,3247520.9948561788
466,707568757.3915341
467,17040883.134910375
468,51122797.99464987
469,46997581.4704485
470,9742562.984568534
471,22.44698315242053
606,22.708644725574477
669,23.683859113667374
732,23.62407052535591
795,22.200906072016245
858,23.01920295968406
2,1, 6, 1, 0,10, 0.00,60.00,Tuesday
7,19.5875
8,5417280.0
129,2339280.0
166,5417280.0
203,2339280.0
240,10136879.999999998
277,3421440.0
350,1477440.0000000002
375,3421440.0
400,1477440.0000000002
425,6402240.0
450,0.0
451,5170252.83444546
452,13327901.328647198
453,6332142.804428439
454,2625705.9448627196
455,0.0
456,4284146.66928027
457,1332388.590305693
458,12691850.971922006
459,5404830.809820315
460,1347845.418859436
461,2739651.1682868763
462,7143322.2469390305
463,16388950.870453034
464,9852866.200248886
465,3553833.837151404
466,882845427.729352
467,19013636.43151597
468,49166852.61135909
469,28185658.228580836
470,10661501.511454208
471,23.851083070719937
606,23.827088475900556
669,23.89892893510808
732,23.898805036947294
795,22.930440833235558
858,23.88240129004643
2,1, 6, 1, 0,11, 0.00,60.00,Tuesday
7,20.6875
8,5702400.0
129,2462400.0
166,5702400.0
203,2462400.0
240,10670400.0
277,3421440.0
350,1477440.0000000002
375,3421440.0
400,1477440.0000000002
425,6402240.0
450,0.0
451,5589028.571397201
452,9411149.142954461
453,5796227.069134903
454,2685264.0342396805
455,0.0
456,4429324.508828674
457,1420437.0712854373
458,8942944.086533504
459,4980015.496064412
460,1205604.708205422
461,2762636.333583178
462,12255451.80421835
463,13018055.424270427
464,7190876.331846839
465,3583649.8440679326
466,961779161.6008394
467,25756109.029385317
468,39054166.272811264
469,20570621.63782415
470,10750949.532203794
471,25.009249575180547
606,23.89810198918373
669,23.898642882692272
732,23.898213900597582
795,23.51784917191509
858,23.897876574429027
2,1, 6, 1, 0,12, 0.00,60.00,Tuesday
7,21.787499999999998
8,5417280.0
129,2339280.0
166,5417280.0
203,2339280.0
240,10136879.999999998
277,3421440.0
350,1477440.0000000002
375,3421440.0
400,1477440.0000000002
425,6402240.0
450,0.0
451,5937588.297541322
452,5106268.34095244
453,6198144.877112867
454,2818193.082988157
455,0.0
456,4516173.689036755
457,1440986.740588892
458,4882067.876003236
459,5099709.993947333
460,1234581.3751069552
461,2829036.201021878
462,18410218.145449612
463,8419653.885083446
464,7363708.79242026
465,3669782.742452064
466,948930678.8203732
467,33840471.69523581
468,25258961.655250337
469,21065035.807825167
470,11009348.227356186
471,25.900149752952444
606,23.898288768403802
669,23.89883116132271
732,23.898374300566953
795,23.75274032059583
858,23.898060145727598
2,1, 6, 1, 0,13, 0.00,60.00,Tuesday
7,22.8875
8,4561920.0
129,1969920.0000000002
166,4561920.0
203,1969920.0000000002
240,8536320.000000002
277,3421440.0
350,1477440.0000000002
375,3421440.0
400,1477440.0000000002
425,6402240.0
450,0.0
451,5690663.04921974
452,2821708.8876740816
453,6081520.893514989
454,2914569.0066838386
455,0.0
456,4206043.308247091
457,1309591.7580875107
458,2796445.6004327973
459,4832618.833516072
460,1169921.6645517468
461,2822388.4508733517
462,20476054.692720614
463,3968097.773818594
464,6978043.425413174
465,4057517.523353942
466,804871809.0018437
467,35601430.441145115
468,11904293.321455779
469,19961779.96286227
470,12172552.570061823
471,26.50081024153122
606,23.89857480776709
669,23.898735448746862
732,23.898601555164152
795,23.603137317818792
858,23.898453277664274
2,1, 6, 1, 0,14, 0.00,60.00,Tuesday
7,23.3
8,5132160.000000001
129,2216160.0
166,5132160.000000001
203,2216160.0
240,9603360.0
277,3421440.0
350,1477440.0000000002
375,3421440.0
400,1477440.0000000002
425,6402240.0
450,0.0
451,6446325.2600169275
452,2986417.2979890327
453,6734710.465325845
454,5682547.063428602
455,0.0
456,4461944.384322851
457,1604245.4640492178
458,2892635.689597956
459,5214356.440459473
460,1262335.9665943286
461,5211425.719101896
462,25493285.100494828
463,3752283.0319573595
464,7529252.136493388
465,8669693.717020605
466,857929149.041805
467,42205486.783969745
468,11256849.095872076
469,21538598.32488682
470,26009081.151061807
471,26.861857687458947
606,23.898885747151773
669,23.899102331719533
732,23.898913218554082
795,23.889373583677454
858,23.89853250362152
2,1, 6, 1, 0,15, 0.00,60.00,Tuesday
7,23.674999999999997
8,5702400.0
129,2462400.0
166,5702400.0
203,2462400.0
240,10670400.0
277,3041280.0000000005
350,1313280.0
375,3041280.0000000005
400,1313280.0
425,5690880.000000001
450,0.0
451,6721975.579661726
452,2697255.9475992643
453,6065528.05783006
454,10459564.323020622
455,0.0
456,4001694.517290913
457,2181064.838414319
458,2590603.8937857565
459,4669904.387482218
460,1130530.360973178
461,9629075.742016496
462,26642055.515016478
463,3360491.9790386837
464,6743092.457939463
465,13434207.782021299
466,803101687.6656227
467,42217506.07637726
468,10081475.937116047
469,19289666.12967928
470,40302623.34606388
471,27.099536007329455
606,23.898618424325328
669,23.898735290028963
732,23.898653341318333
795,23.898469668467573
858,23.89834607804507
2,1, 6, 1, 0,16, 0.00,60.00,Tuesday
7,24.5875
8,5702400.0
129,2462400.0
166,5702400.0
203,2462400.0
240,10670400.0
277,2661119.9999999995
350,1149120.0
375,2661119.9999999995
400,1149120.0
425,4979519.999999999
450,0.0
451,6726142.156891463
452,2313045.6047113137
453,5213529.655698041
454,14225666.784826947
455,0.0
456,3291599.9079559734
457,2626431.3229207057
458,2168179.792586183
459,3908429.362951408
460,946185.9798200094
461,13182102.862493262
462,22991023.68267919
463,2812529.8582223896
464,5643563.202354137
465,16258025.922650699
466,623958165.5347643
467,39227421.70004664
468,8437589.574667165
469,16144291.455914702
470,48774077.76795208
471,27.287667537210908
606,23.898378214101598
669,23.898489632436323
732,23.89842390335971
795,23.898501811538676
858,23.898154494718305
2,1, 6, 1, 0,17, 0.00,60.00,Tuesday
7,24.3125
8,5702400.0
129,2462400.0
166,5702400.0
203,2462400.0
240,10670400.0
277,1900800.0
350,820800.0
375,1900800.0
400,820800.0
425,3556800.0
450,0.0
451,5244723.759168897
452,1652398.609686329
453,3698315.932691398
454,15864512.395553194
455,0.0
456,2377059.2255834835
457,2252951.0311611826
458,1586411.978164359
459,2859716.3290594365
460,692304.5667569926
461,14861296.973674055
462,17217140.44766204
463,2057869.4955490187
464,4129277.606200335
465,17397090.318863943
466,429724216.7517734
467,31353697.011234578
468,6173608.486647055
469,11812441.676753415
470,52191270.9565918
471,27.454088643033042
606,23.898182000350985
669,23.89212918166735
732,23.89824266000629
795,23.898193854094238
858,23.89798785309589
2,1, 6, 1, 0,18, 0.00,60.00,Tuesday
7,23.2125
8,5702400.0
129,2462400.0
166,5702400.0
203,2462400.0
240,10670400.0
277,1900800.0
350,820800.0
375,1900800.0
400,820800.0
425,3556800.0
450,0.0
451,2636171.563950743
452,897691.3491572597
453,1933435.1102105991
454,14747369.014358649
455,0.0
456,1459711.3167021775
457,1122935.9188915086
458,983636.1764270839
459,1773133.6338225063
460,429255.34245890885
461,13977396.915631408
462,10138193.415289663
463,1275957.8911714787
464,2560310.2421532953
465,16058003.876714814
466,239814410.8592927
467,19857576.634393603
468,3827873.6735144337
469,7324166.184520491
470,48174011.63014442
471,27.474573632838062
606,23.89842417964932
669,23.703118385265615
732,23.898417450216364
795,23.898679344476168
858,23.897974122389783
2,1, 6, 1, 0,19, 0.00,60.00,Tuesday
7,21.425000000000004
8,3421440.0
129,1477440.0
166,3421440.0
203,1477440.0
240,6402239.999999999
277,1140480.0
350,492479.99999999994
375,1140480.0
400,492479.99999999994
425,2134080.0
450,0.0
451,361319.84478806966
452,198006.8440553098
453,295362.97709690756
454,7819086.259885078
455,0.0
456,642661.9229346153
457,268395.4121830771
458,436339.74606741243
459,786559.8054109934
460,190417.11927162428
461,7717915.267457799
462,2857530.781075976
463,566013.2837415476
464,1135750.339086658
465,8908678.284624698
466,70079304.4707558
467,6092691.091921912
468,1698039.8512246425
469,3248990.724108554
470,26726034.853874084
471,27.312647875520735
606,23.690885296536507
669,22.62576993247323
732,23.588151349710312
795,23.89898653723498
858,23.879631983761996
2,1, 6, 1, 0,20, 0.00,60.00,Tuesday
7,18.474999999999998
8,1140480.0
129,492480.00000000006
166,1140480.0
203,492480.00000000006
240,2134080.0000000005
277,1140480.0
350,492479.99999999994
375,1140480.0
400,492479.99999999994
425,2134080.0
450,0.0
451,0.0
452,0.0
453,0.0
454,0.0
455,0.0
456,0.0
457,0.0
458,0.0
459,0.0
460,0.0
461,0.0
462,0.0
463,0.0
464,0.0
465,0.0
466,0.0
467,0.0
468,0.0
469,0.0
470,0.0
471,26.285179345455095
606,22.45327881942481
669,22.202207876853123
732,22.407029801651035
795,22.959277861595922
858,22.894399404163945
2,1, 6, 1, 0,21, 0.00,60.00,Tuesday
7,15.137500000000001
8,1140480.0
129,492480.00000000006
166,1140480.0
203,492480.00000000006
240,2134080.0000000005
277,76032.0
350,32832.0
375,76032.0
400,32832.0
425,142272.0
450,0.0
451,0.0
452,0.0
453,0.0
454,0.0
455,0.0
456,0.0
457,0.0
458,0.0
459,0.0
460,0.0
461,0.0
462,0.0
463,0.0
464,0.0
465,0.0
466,0.0
467,0.0
468,0.0
469,0.0
470,0.0
471,25.820033533330147
606,22.121915949579897
669,22.1000335411648
732,22.05884593177349
795,22.99536654423966
858,22.57984288725817
2,1, 6, 1, 0,22, 0.00,60.00,Tuesday
7,12.837499999999999
8,285120.0
129,123120.00000000001
166,285120.0
203,123120.00000000001
240,533520.0000000001
277,76032.0
350,32832.0
375,76032.0
400,32832.0
425,142272.0
450,0.0
451,0.0
452,0.0
453,0.0
454,0.0
455,0.0
456,0.0
457,0.0
458,0.0
459,0.0
460,0.0
461,0.0
462,0.0
463,0.0
464,0.0
465,0.0
466,0.0
467,0.0
468,0.0
469,0.0
470,0.0
471,24.881945511212567
606,21.425694623905013
669,21.494794772312847
732,21.37605512367059
795,22.21115092514572
858,22.21890340608845
2,1, 6, 1, 0,23, 0.00,60.00,Tuesday
7,12.575
8,285120.0
129,123120.00000000001
166,285120.0
203,123120.00000000001
240,533520.0000000001
277,76032.0
350,32832.0
375,76032.0
400,32832.0
425,142272.0
450,0.0
451,0.0
452,0.0
453,0.0
454,0.0
455,0.0
456,0.0
457,0.0
458,0.0
459,0.0
460,0.0
461,0.0
462,0.0
463,0.0
464,0.0
465,0.0
466,0.0
467,0.0
468,0.0
469,0.0
470,0.0
471,23.764736003606572
606,20.8266888033452
669,20.926363145807287
732,20.795208829615518
795,21.36767468253813
858,21.742510320302728
2,1, 6, 1, 0,24, 0.00,60.00,Tuesday
7,13.1125
8,285120.0
129,123120.00000000001
166,285120.0
203,123120.00000000001
240,533520.0000000001
277,76032.0
350,32832.0
375,76032.0
400,32832.0
425,142272.0
450,0.0
451,0.0
452,0.0
453,0.0
454,0.0
455,0.0
456,0.0
457,0.0
458,0.0
459,0.0
460,0.0
461,0.0
462,0.0
463,0.0
464,0.0
465,0.0
466,0.0
467,0.0
468,0.0
469,0.0
470,0.0
471,22.745831388075114
606,20.524844742552645
669,20.595479899421523
732,20.507455640160348
795,20.832201413933646
858,21.400354109902963
2,2, 6, 2, 0, 1, 0.00,60.00,Wednesday
7,13.3
8,285120.0
129,123120.00000000001
166,285120.0
203,123120.00000000001
240,533520.0000000001
277,76032.0
350,32832.0
375,76032.0
400,32832.0
425,142272.0
450,0.0
451,0.0
452,0.0
453,0.0
454,0.0
455,0.0
456,0.0
457,0.0
458,0.0
459,0.0
460,0.0
461,0.0
462,0.0
463,0.0
464,0.0
465,0.0
466,0.0
467,0.0
468,0.0
469,0.0
470,0.0
471,21.894076195446843
606,20.313199592846004
669,20.375512194583578
732,20.298582905677947
795,20.510766733006655
858,21.13750618161986
2,2, 6, 2, 0, 2, 0.00,60.00,Wednesday
7,13.3
8,285120.0
129,123120.00000000001
166,285120.0
203,123120.00000000001
240,533520.0000000001
277,76032.0
350,32832.0
375,76032.0
400,32832.0
425,142272.0
450,0.0
451,0.0
452,0.0
453,0.0
454,0.0
455,0.0
456,0.0
457,0.0
458,0.0
459,0.0
460,0.0
461,0.0
462,0.0
463,0.0
464,0.0
465,0.0
466,0.0
467,0.0
468,0.0
469,0.0
470,0.0
471,21.206916224826003
606,20.15795936082487
669,20.214500919667174
732,20.146065342103313
795,20.292415235470557
858,20.935909285542763
2,2, 6, 2, 0, 3, 0.00,60.00,Wednesday
7,13.3
8,285120.0
129,123120.00000000001
166,285120.0
203,123120.00000000001
240,533520.0000000001
277,76032.0
350,32832.0
375,76032.0
400,32832.0
425,142272.0
450,0.0
451,0.0
452,0.0
453,0.0
454,0.0
455,0.0
456,0.0
457,0.0
458,0.0
459,0.0
460,0.0
461,0.0
462,0.0
463,0.0
464,0.0
465,0.0
466,0.0
467,0.0
468,0.0
469,0.0
470,0.0
471,20.68581423514788
606,20.039064570318637
669,20.0925768554967
732,20.0297423664589
795,20.137555351512503
858,20.781663063757524
2,2, 6, 2, 0, 4, 0.00,60.00,Wednesday
7,12.9875
8,285120.0
129,123120.00000000001
166,285120.0
203,123120.00000000001
240,533520.0000000001
277,76032.0
350,32832.0
375,76032.0
400,32832.0
425,142272.0
450,0.0
451,0.0
452,0.0
453,0.0
454,0.0
455,0.0
456,0.0
457,0.0
458,0.0
459,0.0
460,0.0
461,0.0
462,0.0
463,0.0
464,0.0
465,0.0
466,0.0
467,0.0
468,0.0
469,0.0
470,0.0
471,20.29738841334287
606,19.93568993739452
669,19.98797412860583
732,19.926255556093707
795,20.013919560709212
858,20.653256149338024
2,2, 6, 2, 0, 5, 0.00,60.00,Wednesday
7,12.425
8,285120.0
129,123120.00000000001
166,285120.0
203,123120.00000000001
240,533520.0000000001
277,76032.0
350,32832.0
375,76032.0
400,32832.0
425,142272.0
450,0.0
451,0.0
452,648643.4399180226
453,2517777.155330003
454,0.0
455,0.0
456,254492.21032294666
457,97246.05240316325
458,1111064.4656332664
459,2984090.1073522232
460,713334.9461524001
461,248944.8084383416
462,630686.2414071005
463,1439360.6902612397
464,4037138.3319651536
465,322927.42012282077
466,29278157.179509208
467,1508059.3448479397
468,4318082.070783718
469,11548862.933244579
470,968782.260368462
471,19.98569775662126
606,19.859023083157034
669,20.039365485060124
732,20.058046186011772
795,19.94189893165362
858,20.552501613338762
2,2, 6, 2, 0, 6, 0.00,60.00,Wednesday
7,13.2625
8,285120.0
129,123120.00000000001
166,285120.0
203,123120.00000000001
240,533520.0000000001
277,76032.0
350,32832.0
375,76032.0
400,32832.0
425,142272.0
450,0.0
451,56625.48548342232
452,3918408.0152242165
453,9928420.089424344
454,297925.0530912506
455,0.0
456,1019315.8484097882
457,370771.4467474022
458,4254171.085950714
459,8727162.109137908
460,2079655.684624765
461,903531.7141528054
462,2292720.869791749
463,5311834.279625603
464,11833766.379154244
465,1172047.6007547753
466,129106390.61041328
467,5616656.229660532
468,15935502.838876799
469,33852331.69118714
470,3516142.802264325
471,19.843621985307273
606,19.96646707493896
669,20.80083699367702
732,21.00097037702067
795,20.10605267328615
858,20.53202192560464
2,2, 6, 2, 0, 7, 0.00,60.00,Wednesday
7,16.337500000000002
8,285120.0
129,123120.00000000001
166,285120.0
203,123120.00000000001
240,533520.0000000001
277,76032.0
350,32832.0
375,76032.0
400,32832.0
425,142272.0
450,0.0
451,1463133.1708237305
452,8592102.254825879
453,15738631.56609059
454,1040058.0246828705
455,0.0
456,1889270.0304174006
457,637978.4879498596
458,8431473.094206166
459,12578878.791998293
460,3021007.730112259
461,1431111.2132344146
462,3643026.1038257936
463,10262447.660978567
464,17778557.08093402
465,1856415.7047408086
466,276595789.9156883
467,9309356.368368104
468,30787342.98293569
469,50858331.32168832
470,5569247.114222424
471,20.326216080691474
606,22.1224349472111
669,22.191877456307868
732,22.20578735036602
795,22.135845012414862
858,22.08205813931889
2,2, 6, 2, 0, 8, 0.00,60.00,Wednesday
7,19.175
8,285120.0
129,123120.00000000001
166,285120.0
203,123120.00000000001
240,533520.0000000001
277,76032.0
350,32832.0
375,76032.0
400,32832.0
425,142272.0
450,0.0
451,3771700.1989170983
452,13736269.413935008
453,17600622.869279306
454,2019436.4870523787
455,0.0
456,3121051.3889766065
457,1010917.0111390438
458,13045388.069113303
459,13353920.507686377
460,3317928.253231772
461,2163447.667263955
462,5523418.472875633
463,15803842.695850607
464,21070795.571821973
465,2806391.4172097365
466,518625060.3777349
467,14479736.803511962
468,47411528.0875518
469,60276292.25053991
470,8419174.251629207
471,21.011416050449068
606,22.200056754356748
669,22.7233940971418
732,22.571904800694572
795,22.1995220339981
858,22.20056928840011
2,2, 6, 2, 0, 9, 0.00,60.00,Wednesday
7,21.0625
8,5132160.000000001
129,2216160.0
166,5132160.000000001
203,2216160.0
240,9603360.0
277,1520640.0000000002
350,656640.0
375,1520640.0000000002
400,656640.0
425,2845440.0000000005
450,0.0
451,5498247.0242645815
452,14380534.839188777
453,12100496.140406726
454,2847474.8614658727
455,0.0
456,4032747.5135907764
457,1299296.4497771335
458,13534955.164957047
459,9026402.121769996
460,2324251.17139198
461,2771680.8531519375
462,7082132.642833427
463,16720422.492526093
464,16698515.28809356
465,3595382.257324155
466,700436812.3159075
467,18609245.005947836
468,50161267.47757826
469,47768703.57003814
470,10786146.77197246
471,22.671432295076237
606,22.961159110789254
669,23.8872354736691
732,23.843924062823717
795,22.258939796098964
858,23.08197294332207
2,2, 6, 2, 0,10, 0.00,60.00,Wednesday
7,22.3875
8,5417280.0
129,2339280.0
166,5417280.0
203,2339280.0
240,10136879.999999998
277,3421440.0
350,1477440.0000000002
375,3421440.0
400,1477440.0000000002
425,6402240.0
450,0.0
451,6241346.742595759
452,13096614.158479115
453,7613749.228456213
454,3120766.1342368945
455,0.0
456,4506241.894805603
457,1426024.7570057376
458,12250778.778171593
459,5880554.248186383
460,1457819.125005909
461,2973718.3709303043
462,7727960.501545711
463,15821634.065804226
464,10266162.30235159
465,3857462.253261673
466,845404354.0865688
467,20392622.169224568
468,47464902.197412655
469,29367956.094432015
470,11572386.759785015
471,24.25931647432529
606,23.887901967355003
669,23.89903698047113
732,23.89895313306297
795,23.2363979183325
858,23.897144899108497
2,2, 6, 2, 0,11, 0.00,60.00,Wednesday
7,23.799999999999997
8,5702400.0
129,2462400.0
166,5702400.0
203,2462400.0
240,10670400.0
277,3421440.0
350,1477440.0000000002
375,3421440.0
400,1477440.0000000002
425,6402240.0
450,0.0
451,7233219.935616036
452,9766095.703419605
453,7975688.050646112
454,3577430.182345337
455,0.0
456,4935911.230652163
457,1642693.7092723425
458,9026562.11546476
459,6017049.070720331
460,1456658.657969297
461,3337925.0319324466
462,13164854.255183911
463,12784064.044402774
464,8688297.412808735
465,4329905.595891565
466,919212337.0869622
467,28421066.745610416
468,38352192.13320831
469,24854227.844838098
470,12989716.787674692
471,25.45772783483949
606,23.898266549995434
669,23.898755735991262
732,23.89838019297725
795,23.856121405853987
858,23.898100683229693
2,2, 6, 2, 0,12, 0.00,60.00,Wednesday
7,24.4
8,5417280.0
129,2339280.0
166,5417280.0
203,2339280.0
240,10136879.999999998
277,3421440.0
350,1477440.0000000002
375,3421440.0
400,1477440.0000000002
425,6402240.0
450,0.0
451,7644447.984623464
452,6069330.3902722495
453,8719532.394053835
454,3875678.0260077813
455,0.0
456,5149103.586944698
457,1712571.952433805
458,5571872.734925004
459,6458546.089143329
460,1563540.0290192596
461,3582843.0859481245
462,19194447.937650796
463,8798556.452250995
464,9325795.52157322
465,4647609.571406981
466,927594792.3505987
467,36767497.09057889
468,26395669.356752977
469,26677890.467451256
470,13942828.71422094
471,26.243293416673254
606,23.898333406633725
669,23.898883742590165
732,23.898404634552655
795,23.898374958419087
858,23.89808054389099
2,2, 6, 2, 0,13, 0.00,60.00,Wednesday
7,24.775
8,4561920.0
129,1969920.0000000002
166,4561920.0
203,1969920.0000000002
240,8536320.000000002
277,3421440.0
350,1477440.0000000002
375,3421440.0
400,1477440.0000000002
425,6402240.0
450,0.0
451,7289736.893297941
452,3708995.009090836
453,8109754.723966376
454,3776052.179501138
455,0.0
456,4922550.310118246
457,1564368.1799605782
458,3440709.6229525697
459,5949177.515609944
460,1440227.731909133
461,3455387.2258688724
462,23442289.873210475
463,4842838.007056359
464,8590294.513091933
465,4862037.3468111325
466,931369341.8991847
467,41237560.21484061
468,14528514.021169074
469,24573875.287451513
470,14586112.040433392
471,26.841249080019956
606,23.89899709777454
669,23.899218764499047
732,23.899041350593894
795,23.89903996370121
858,23.898777254383088
2,2, 6, 2, 0,14, 0.00,60.00,Wednesday
7,25.0
8,5132160.000000001
129,2216160.0
166,5132160.000000001
203,2216160.0
240,9603360.0
277,3421440.0
350,1477440.0000000002
375,3421440.0
400,1477440.0000000002
425,6402240.0
450,0.0
451,6470634.856787165
452,3425673.285375876
453,7802733.744331855
454,5115776.786713826
455,0.0
456,4159227.945425058
457,1508405.848887796
458,3145386.0796355437
459,5669972.275132492
460,1372635.3413349958
461,4613218.805473937
462,19386059.430606186
463,4080146.994664141
464,8187137.061661597
465,6969986.21837703
466,658351873.1808109
467,34597297.6870937
468,12240440.983992418
469,23420580.610818833
470,20909958.65513108
471,27.20942012542033
606,23.89890760407041
669,23.89899770340363
732,23.8989126361398
795,23.898861827770574
858,23.898599558037038
2,2, 6, 2, 0,15, 0.00,60.00,Wednesday
7,25.0
8,5702400.0
129,2462400.0
166,5702400.0
203,2462400.0
240,10670400.0
277,3041280.0000000005
350,1313280.0
375,3041280.0000000005
400,1313280.0
425,5690880.000000001
450,0.0
451,4736453.414908609
452,3211759.299033198
453,7302411.58806796
454,4008301.258840181
455,0.0
456,2849661.361365217
457,1200621.9452520194
458,2910745.8577590883
459,5247002.401486778
460,1270239.179817162