Program Version,EnergyPlus, Version 25.1.0-68a4a7c774, YMD=2025.06.06 00:47
1,5,Environment Title[],Latitude[deg],Longitude[deg],Time Zone[],Elevation[m]
2,8,Day of Simulation[],Month[],Day of Month[],DST Indicator[1=yes 0=no],Hour[],StartMinute[],EndMinute[],DayType
3,5,Cumulative Day of Simulation[],Month[],Day of Month[],DST Indicator[1=yes 0=no],DayType  ! When Daily Report Variables Requested
4,2,Cumulative Days of Simulation[],Month[]  ! When Monthly Report Variables Requested
5,1,Cumulative Days of Simulation[] ! When Run Period Report Variables Requested
6,1,Calendar Year of Simulation[] ! When Annual Report Variables Requested
7,1,Environment,Site Outdoor Air Drybulb Temperature [C] !Hourly
8,1,SPACE1-1 LIGHTS 1,Lights Electricity Energy [J] !Hourly
129,1,SPACE2-1 LIGHTS 1,Lights Electricity Energy [J] !Hourly
166,1,SPACE3-1 LIGHTS 1,Lights Electricity Energy [J] !Hourly
203,1,SPACE4-1 LIGHTS 1,Lights Electricity Energy [J] !Hourly
240,1,SPACE5-1 LIGHTS 1,Lights Electricity Energy [J] !Hourly
277,1,SPACE1-1 ELECEQ 1,Electric Equipment Electricity Energy [J] !Hourly
350,1,SPACE2-1 ELECEQ 1,Electric Equipment Electricity Energy [J] !Hourly
375,1,SPACE3-1 ELECEQ 1,Electric Equipment Electricity Energy [J] !Hourly
400,1,SPACE4-1 ELECEQ 1,Electric Equipment Electricity Energy [J] !Hourly
425,1,SPACE5-1 ELECEQ 1,Electric Equipment Electricity Energy [J] !Hourly
450,1,PLENUM-1,Zone Windows Total Heat Gain Energy [J] !Hourly
451,1,SPACE1-1,Zone Windows Total Heat Gain Energy [J] !Hourly
452,1,SPACE2-1,Zone Windows Total Heat Gain Energy [J] !Hourly
453,1,SPACE3-1,Zone Windows Total Heat Gain Energy [J] !Hourly
454,1,SPACE4-1,Zone Windows Total Heat Gain Energy [J] !Hourly
455,1,SPACE5-1,Zone Windows Total Heat Gain Energy [J] !Hourly
456,1,WF-1,Surface Window Transmitted Solar Radiation Energy [J] !Hourly
457,1,DF-1,Surface Window Transmitted Solar Radiation Energy [J] !Hourly
458,1,WR-1,Surface Window Transmitted Solar Radiation Energy [J] !Hourly
459,1,WB-1,Surface Window Transmitted Solar Radiation Energy [J] !Hourly
460,1,DB-1,Surface Window Transmitted Solar Radiation Energy [J] !Hourly
461,1,WL-1,Surface Window Transmitted Solar Radiation Energy [J] !Hourly
462,1,WALL-1PF,Surface Outside Face Solar Radiation Heat Gain Energy [J] !Hourly
463,1,WALL-1PR,Surface Outside Face Solar Radiation Heat Gain Energy [J] !Hourly
464,1,WALL-1PB,Surface Outside Face Solar Radiation Heat Gain Energy [J] !Hourly
465,1,WALL-1PL,Surface Outside Face Solar Radiation Heat Gain Energy [J] !Hourly
466,1,TOP-1,Surface Outside Face Solar Radiation Heat Gain Energy [J] !Hourly
467,1,FRONT-1,Surface Outside Face Solar Radiation Heat Gain Energy [J] !Hourly
468,1,RIGHT-1,Surface Outside Face Solar Radiation Heat Gain Energy [J] !Hourly
469,1,BACK-1,Surface Outside Face Solar Radiation Heat Gain Energy [J] !Hourly
470,1,LEFT-1,Surface Outside Face Solar Radiation Heat Gain Energy [J] !Hourly
471,1,PLENUM-1,Zone Air Temperature [C] !Hourly
606,1,SPACE1-1,Zone Air Temperature [C] !Hourly
669,1,SPACE2-1,Zone Air Temperature [C] !Hourly
732,1,SPACE3-1,Zone Air Temperature [C] !Hourly
795,1,SPACE4-1,Zone Air Temperature [C] !Hourly
858,1,SPACE5-1,Zone Air Temperature [C] !Hourly
End of Data Dictionary
1,RUN PERIOD 1,  41.98, -87.92,  -6.00, 201.00
2,1, 6, 1, 0, 1, 0.00,60.00,Tuesday
7,16.300000000000004
8,199584.0
129,86184.0
166,199584.0
203,86184.0
240,373464.00000000006
277,60825.600000000006
350,26265.600000000002
375,76032.0
400,26265.600000000002
425,113817.6
450,0.0
451,0.0
452,0.0
453,0.0
454,0.0
455,0.0
456,0.0
457,0.0
458,0.0
459,0.0
460,0.0
461,0.0
462,0.0
463,0.0
464,0.0
465,0.0
466,0.0
467,0.0
468,0.0
469,0.0
470,0.0
471,21.69644147273337
606,20.276668206542062
669,20.30020126325255
732,20.265269056233002
795,20.358392825195274
858,20.99574849778393
2,1, 6, 1, 0, 2, 0.00,60.00,Tuesday
7,18.162499999999998
8,199584.0
129,86184.0
166,199584.0
203,86184.0
240,373464.00000000006
277,60825.600000000006
350,26265.600000000002
375,76032.0
400,26265.600000000002
425,113817.6
450,0.0
451,0.0
452,0.0
453,0.0
454,0.0
455,0.0
456,0.0
457,0.0
458,0.0
459,0.0
460,0.0
461,0.0
462,0.0
463,0.0
464,0.0
465,0.0
466,0.0
467,0.0
468,0.0
469,0.0
470,0.0
471,21.124366077631905
606,20.348302243139834
669,20.343459777621078
732,20.340801802090574
795,20.376990424252618
858,20.83667581255859
2,1, 6, 1, 0, 3, 0.00,60.00,Tuesday
7,18.2
8,199584.0
129,86184.0
166,199584.0
203,86184.0
240,373464.00000000006
277,60825.600000000006
350,26265.600000000002
375,76032.0
400,26265.600000000002
425,113817.6
450,0.0
451,0.0
452,0.0
453,0.0
454,0.0
455,0.0
456,0.0
457,0.0
458,0.0
459,0.0
460,0.0
461,0.0
462,0.0
463,0.0
464,0.0
465,0.0
466,0.0
467,0.0
468,0.0
469,0.0
470,0.0
471,20.79374455029505
606,20.349726276237
669,20.345178830641878
732,20.3451457187064
795,20.36452142227572
858,20.743437500184243
2,1, 6, 1, 0, 4, 0.00,60.00,Tuesday
7,18.2625
8,199584.0
129,86184.0
166,199584.0
203,86184.0
240,373464.00000000006
277,60825.600000000006
350,26265.600000000002
375,76032.0
400,26265.600000000002
425,113817.6
450,0.0
451,0.0
452,0.0
453,0.0
454,0.0
455,0.0
456,0.0
457,0.0
458,0.0
459,0.0
460,0.0
461,0.0
462,0.0
463,0.0
464,0.0
465,0.0
466,0.0
467,0.0
468,0.0
469,0.0
470,0.0
471,20.611769593239003
606,20.346154985952452
669,20.34416503747938
732,20.34349902732398
795,20.355312858900334
858,20.68106785094963
2,1, 6, 1, 0, 5, 0.00,60.00,Tuesday
7,17.9875
8,199584.0
129,86184.0
166,199584.0
203,86184.0
240,373464.00000000006
277,60825.600000000006
350,26265.600000000002
375,76032.0
400,26265.600000000002
425,113817.6
450,0.0
451,0.0
452,0.0
453,0.0
454,0.0
455,0.0
456,47654.604563520086
457,55543.67549392834
458,65876.03128907984
459,132438.2077819225
460,91031.17891082208
461,53508.26860063692
462,148445.9278734512
463,93744.48909520484
464,206983.28080229045
465,76053.68768745475
466,16345562.631296143
467,343945.0128971043
468,281233.4672856144
469,592107.9098360604
470,228161.06306236412
471,20.480553555659505
606,20.338729260014567
669,20.347994679484223
732,20.351093607483595
795,20.35099771798065
858,20.635685444979632
2,1, 6, 1, 0, 6, 0.00,60.00,Tuesday
7,16.737500000000004
8,199584.0
129,86184.0
166,199584.0
203,86184.0
240,373464.00000000006
277,60825.600000000006
350,26265.600000000002
375,76032.0
400,26265.600000000002
425,113817.6
450,0.0
451,0.0
452,0.0
453,0.0
454,0.0
455,0.0
456,176966.04237551673
457,205817.11073590783
458,222904.2158418419
459,408002.00720618735
460,280949.3506601458
461,197833.34353449475
462,548837.0512904332
463,316114.2663224454
464,642209.3317720455
465,281189.35104467784
466,60348653.36848375
467,1272861.6415174408
468,948342.798967336
469,1837139.809741343
470,843568.0531340333
471,20.388350288044474
606,20.31002616687589
669,20.35829991867117
732,20.366472551652667
795,20.351549949180882
858,20.60657328727766
2,1, 6, 1, 0, 7, 0.00,60.00,Tuesday
7,15.787500000000001
8,199584.0
129,86184.0
166,199584.0
203,86184.0
240,373464.00000000006
277,60825.600000000006
350,26265.600000000002
375,76032.0
400,26265.600000000002
425,113817.6
450,0.0
451,0.0
452,529077.0345488626
453,1252816.3933807663
454,74996.63210201936
455,0.0
456,434016.2490964525
457,486388.4030985021
458,792543.8761733887
459,1258236.859359508
460,869721.463677032
461,452224.6140016503
462,1255617.8263446873
463,1098524.291700767
464,1994977.3142039333
465,642767.0051251086
466,154902163.61174655
467,2957676.088134493
468,3295572.8751022993
469,5706943.300468627
470,1928301.0153753255
471,20.61853596443299
606,22.12843415643863
669,22.142393323356714
732,22.1342281248824
795,22.14500847351215
858,22.07495648745176
2,1, 6, 1, 0, 8, 0.00,60.00,Tuesday
7,16.287499999999998
8,199584.0
129,86184.0
166,199584.0
203,86184.0
240,373464.00000000006
277,60825.600000000006
350,26265.600000000002
375,76032.0
400,26265.600000000002
425,113817.6
450,0.0
451,990366.6516768346
452,3602277.035515962
453,5974871.374123786
454,594012.7436430495
455,0.0
456,1006315.8147404403
457,1014664.3827934051
458,2940963.9505835967
459,3229090.8870739993
460,2315801.383810457
461,847318.229940889
462,2360096.178192981
463,3972486.2999254307
464,5574523.358308784
465,1204331.1756688813
466,412249093.740191
467,5857505.897374879
468,11917458.899776287
469,15946792.229916114
470,3612993.5270066424
471,20.917815908357763
606,22.199556648075138
669,22.199531648991048
732,22.199179578659717
795,22.198919436250637
858,22.200027417707297
2,1, 6, 1, 0, 9, 0.00,60.00,Tuesday
7,18.074999999999996
8,3592512.0
129,1551312.0
166,3592512.0
203,1551312.0
240,6722352.000000001
277,1216512.0
350,525312.0
375,1520640.0000000002
400,525312.0
425,2276352.0
450,0.0
451,2133341.239963024
452,6495054.855862294
453,6066007.517709364
454,802551.5864717462
455,0.0
456,1330662.0321885785
457,1198211.9596092976
458,4865441.934251785
459,2922174.9565652655
460,2224116.347724789
461,878778.1316205643
462,2464922.48944328
463,6554204.871108959
464,6318828.45425911
465,1249046.5364831458
466,707568757.3915341
467,6554185.821119375
468,19662614.613326874
469,18075992.87324942
470,3747139.6094494355
471,21.83449954806803
606,22.41802113151691
669,23.480204438675585
732,23.141845071232176
795,22.208214408086526
858,22.76629232827124
2,1, 6, 1, 0,10, 0.00,60.00,Tuesday
7,19.5875
8,3792095.9999999995
129,1637496.0
166,3792095.9999999995
203,1637496.0
240,7095816.000000001
277,2737152.0
350,1181952.0
375,3421440.0
400,1181952.0
425,5121792.0
450,0.0
451,2781982.3517430834
452,6063754.704440713
453,3306513.4289574227
454,1030881.036009325
455,0.0
456,1503811.6791285134
457,1332388.590305693
458,4407379.094819358
459,1904767.4391480852
460,1347845.418859436
461,961666.2877464045
462,2747431.633438089
463,6303442.642481935
464,3789563.9231726485
465,1366859.1681351552
466,882845427.729352
467,7312937.089044603
468,18910327.9274458
469,10840637.780223398
470,4100577.504405464
471,23.049816962570013
606,23.483241651926907
669,23.898946325471243
732,23.883670272682213
795,22.888129690203783
858,23.775070233334414
2,1, 6, 1, 0,11, 0.00,60.00,Tuesday
7,20.6875
8,3991680.0
129,1723680.0
166,3991680.0
203,1723680.0
240,7469280.000000001
277,2737152.0
350,1181952.0
375,3421440.0
400,1181952.0
425,5121792.0
450,0.0
451,3095673.576998954
452,4346468.564951348
453,2973351.6810456426
454,1090316.989043157
455,0.0
456,1554771.6829558832
457,1420437.0712854373
458,3036551.298644191
459,1748074.0141141764
460,1205604.708205422
461,969734.489581587
462,4713635.30931475
463,5006944.393950162
464,2765721.6660949374
465,1378326.8631030507
466,961779161.6008394
467,9906195.780532815
468,15020833.181850484
469,7911777.553009288
470,4134980.589309151
471,24.304872812323218
606,23.898327941795422
669,23.898614595467198
732,23.898602684975053
795,23.45254275515008
858,23.898768181319454
2,1, 6, 1, 0,12, 0.00,60.00,Tuesday
7,21.787499999999998
8,3792095.9999999995
129,1637496.0
166,3792095.9999999995
203,1637496.0
240,7095816.000000001
277,2737152.0
350,1181952.0
375,3421440.0
400,1181952.0
425,5121792.0
450,0.0
451,3419231.0539006325
452,2406568.398307225
453,3332584.3951513637
454,1203038.19472417
455,0.0
456,1585257.289916111
457,1440986.740588892
458,1677871.010792432
459,1790088.911767995
460,1234581.3751069552
461,993042.024046479
462,7080853.132865233
463,3238328.417339788
464,2832195.6893924074
465,1411454.9009431014
466,948930678.8203732
467,13015566.036629159
468,9714985.252019359
469,8101936.849163526
470,4234364.702829303
471,25.333330239242027
606,23.898014494714253
669,23.89822047947225
732,23.898006056203727
795,23.68134598075257
858,23.89819262032936
2,1, 6, 1, 0,13, 0.00,60.00,Tuesday
7,22.8875
8,3193344.0
129,1378944.0
166,3193344.0
203,1378944.0
240,5975424.000000001
277,2737152.0
350,1181952.0
375,3421440.0
400,1181952.0
425,5121792.0
450,0.0
451,3369985.6666213493
452,1260991.004880133
453,3385858.1282042265
454,1321658.7339514322
455,0.0
456,1476396.010252588
457,1309591.7580875107
458,983608.3937537868
459,1696335.163949647
460,1169921.6645517468
461,992965.8614506787
462,7875405.65104639
463,1526191.4514686898
464,2683862.8559281435
465,1560583.6628284394
466,804871809.0018437
467,13692857.861978889
468,4578574.354406068
469,7677607.678023951
470,4681750.988485316
471,26.109135443312873
606,23.89832343556046
669,23.89861268727324
732,23.89829304168525
795,23.55858589718202
858,23.898282241755766
2,1, 6, 1, 0,14, 0.00,60.00,Tuesday
7,23.3
8,3592512.0
129,1551312.0
166,3592512.0
203,1551312.0
240,6722352.000000001
277,2737152.0
350,1181952.0
375,3421440.0
400,1181952.0
425,5121792.0
450,0.0
451,3989273.315413898
452,1360787.6118000126
453,3832122.8339022575
454,2770271.261318726
455,0.0
456,1566221.8394343262
457,1604245.4640492178
458,1015366.5757228049
459,1830331.8536055824
460,1262335.9665943286
461,1788510.016520951
462,9805109.654036472
463,1443185.7815220614
464,2895866.2063436103
465,3334497.583469463
466,857929149.041805
467,16232879.532296054
468,4329557.344566183
469,8284076.278802622
470,10003492.750408385
471,26.50631074550072
606,23.89886634082149
669,23.899236352816523
732,23.899037022475216
795,23.889167274889562
858,23.898448191148525
2,1, 6, 1, 0,15, 0.00,60.00,Tuesday
7,23.674999999999997
8,3991680.0
129,1723680.0
166,3991680.0
203,1723680.0
240,7469280.000000001
277,2433024.0
350,1050624.0
375,3041280.0000000005
400,1050624.0
425,4552704.0
450,0.0
451,4544178.181900182
452,1243784.3896073562
453,3481077.9005836826
454,4988572.711182773
455,0.0
456,1404665.9500613208
457,2181064.838414319
458,909348.0434285199
459,1639219.4993382525
460,1130530.360973178
461,3290755.6126786466
462,10246944.428852491
463,1292496.9150148781
464,2593497.0992074856
465,5167002.993085114
466,803101687.6656227
467,16237502.337068174
468,3877490.745044633
469,7419102.357568955
470,15501008.979255337
471,26.770970589329085
606,23.898606810967387
669,23.898789991020777
732,23.898704590714125
795,23.898455685543546
858,23.898289644915277
2,1, 6, 1, 0,16, 0.00,60.00,Tuesday
7,24.5875
8,3991680.0
129,1723680.0
166,3991680.0
203,1723680.0
240,7469280.000000001
277,2128895.9999999995
350,919296.0
375,2661119.9999999995
400,919296.0
425,3983616.0
450,0.0
451,4975557.746721002
452,1108378.1254457233
453,3078418.295308847
454,6735474.785091344
455,0.0
456,1155410.1123793025
457,2626431.3229207057
458,761069.6706350868
459,1371928.2220658802
460,946185.9798200094
461,4625614.200980736
462,8842701.416415073
463,1081742.2531624574
464,2170601.231674668
465,6253086.8933271915
466,623958165.5347643
467,15087469.884633323
468,3245226.7594873714
469,6209342.8676595
470,18759260.679981567
471,27.003582631177572
606,23.898319133789144
669,23.898473153613228
732,23.898400801754267
795,23.89815554325583
858,23.898118636441282
2,1, 6, 1, 0,17, 0.00,60.00,Tuesday
7,24.3125
8,3991680.0
129,1723680.0
166,3991680.0
203,1723680.0
240,7469280.000000001
277,1520640.0
350,656640.0
375,1900800.0
400,656640.0
425,2845440.0
450,0.0
451,3991918.3236151757
452,766635.9741721587
453,2135619.759243656
454,7469204.053663297
455,0.0
456,834390.0667651879
457,2252951.0311611826
458,556858.8203992837
459,1003811.2946671298
460,692304.5667569926
461,5266953.583991221
462,6621977.09525463
463,791488.2675188535
464,1588183.6946924361
465,6691188.584178438
466,429724216.7517734
467,12059114.23509022
468,2374464.8025565594
469,4543246.798751313
470,20073565.752535306
471,27.21369891803962
606,23.898115720722476
669,23.898279046741994
732,23.898202304120247
795,23.897745342200217
858,23.89793629073995
2,1, 6, 1, 0,18, 0.00,60.00,Tuesday
7,23.2125
8,3991680.0
129,1723680.0
166,3991680.0
203,1723680.0
240,7469280.000000001
277,1520640.0
350,656640.0
375,1900800.0
400,656640.0
425,2845440.0
450,0.0
451,1858359.1256986312
452,327537.1607581971
453,944036.5548607411
454,6921924.615662362
455,0.0
456,511814.69380841893
457,1122935.9188915086
458,345273.79296583874
459,622401.4425831565
460,429255.34245890885
461,5003950.876231065
462,3899305.159726793
463,490753.0350659532
464,984734.7085204982
465,6176155.337198004
466,239814410.8592927
467,7637529.4747667685
468,1472259.105197859
469,2816986.994046343
470,18528466.011594005
471,27.28113924563685
606,23.898426294841595
669,23.89764624685842
732,23.898404963834746
795,23.89833434359707
858,23.897940141114788
2,1, 6, 1, 0,19, 0.00,60.00,Tuesday
7,21.425000000000004
8,2395008.0
129,1034207.9999999999
166,2395008.0
203,1034207.9999999999
240,4481568.0
277,912383.9999999999
350,393984.0
375,1140480.0
400,393984.0
425,1707263.9999999998
450,0.0
451,132745.93798194357
452,5713.349705343106
453,32151.083729954436
454,3501007.839889707
455,0.0
456,226164.60063201815
457,268395.4121830771
458,153163.01164693333
459,276096.4815214456
460,190417.11927162428
461,2782410.904518485
462,1099050.300413837
463,217697.4168236722
464,436827.0534948685
465,3426414.724855653
466,70079304.4707558
467,2343342.727662273
468,653092.2504710162
469,1249611.8169648286
470,10279244.174566954
471,27.137813506750643
606,23.424984908530426
669,23.07422023551576
732,23.381314096785566
795,23.898988708789467
858,23.748895285096076
2,1, 6, 1, 0,20, 0.00,60.00,Tuesday
7,18.474999999999998
8,798336.0
129,344736.0
166,798336.0
203,344736.0
240,1493856.0000000002
277,912383.9999999999
350,393984.0
375,1140480.0
400,393984.0
425,1707263.9999999998
450,0.0
451,0.0
452,0.0
453,0.0
454,0.0
455,0.0
456,0.0
457,0.0
458,0.0
459,0.0
460,0.0
461,0.0
462,0.0
463,0.0
464,0.0
465,0.0
466,0.0
467,0.0
468,0.0
469,0.0
470,0.0
471,26.108542250614036
606,22.337474258775153
669,22.235665419720725
732,22.330279391376294
795,22.649824976507592
858,22.748303363012596
2,1, 6, 1, 0,21, 0.00,60.00,Tuesday
7,15.137500000000001
8,798336.0
129,344736.0
166,798336.0
203,344736.0
240,1493856.0000000002
277,60825.600000000006
350,26265.600000000002
375,76032.0
400,26265.600000000002
425,113817.6
450,0.0
451,0.0
452,0.0
453,0.0
454,0.0
455,0.0
456,0.0
457,0.0
458,0.0
459,0.0
460,0.0
461,0.0
462,0.0
463,0.0
464,0.0
465,0.0
466,0.0
467,0.0
468,0.0
469,0.0
470,0.0
471,25.54295837115234
606,21.847088034017233
669,21.87347056878741
732,21.819863018545515
795,22.269932498615812
858,22.35012058348195
2,1, 6, 1, 0,22, 0.00,60.00,Tuesday
7,12.837499999999999
8,199584.0
129,86184.0
166,199584.0
203,86184.0
240,373464.00000000006
277,60825.600000000006
350,26265.600000000002
375,76032.0
400,26265.600000000002
425,113817.6
450,0.0
451,0.0
452,0.0
453,0.0
454,0.0
455,0.0
456,0.0
457,0.0
458,0.0
459,0.0
460,0.0
461,0.0
462,0.0
463,0.0
464,0.0
465,0.0
466,0.0
467,0.0
468,0.0
469,0.0
470,0.0
471,24.5908151885699
606,21.10522574900117
669,21.19696319760319
732,21.078833864131134
795,21.504360521257908
858,21.98533111943994
2,1, 6, 1, 0,23, 0.00,60.00,Tuesday
7,12.575
8,199584.0
129,86184.0
166,199584.0
203,86184.0
240,373464.00000000006
277,60825.600000000006
350,26265.600000000002
375,76032.0
400,26265.600000000002
425,113817.6
450,0.0
451,0.0
452,0.0
453,0.0
454,0.0
455,0.0
456,0.0
457,0.0
458,0.0
459,0.0
460,0.0
461,0.0
462,0.0
463,0.0
464,0.0
465,0.0
466,0.0
467,0.0
468,0.0
469,0.0
470,0.0
471,23.499812243009398
606,20.59729409281477
669,20.668931171198135
732,20.57813737555551
795,20.844517756200148
858,21.553308306598346
2,1, 6, 1, 0,24, 0.00,60.00,Tuesday
7,13.1125
8,199584.0
129,86184.0
166,199584.0
203,86184.0
240,373464.00000000006
277,60825.600000000006
350,26265.600000000002
375,76032.0
400,26265.600000000002
425,113817.6
450,0.0
451,0.0
452,0.0
453,0.0
454,0.0
455,0.0
456,0.0
457,0.0
458,0.0
459,0.0
460,0.0
461,0.0
462,0.0
463,0.0
464,0.0
465,0.0
466,0.0
467,0.0
468,0.0
469,0.0
470,0.0
471,22.509470596876408
606,20.337348382583986
669,20.39262714873523
732,20.324871993099023
795,20.493440823376538
858,21.235787240386948
2,2, 6, 2, 0, 1, 0.00,60.00,Wednesday
7,13.3
8,199584.0
129,86184.0
166,199584.0
203,86184.0
240,373464.00000000006
277,60825.600000000006
350,26265.600000000002
375,76032.0
400,26265.600000000002
425,113817.6
450,0.0
451,0.0
452,0.0
453,0.0
454,0.0
455,0.0
456,0.0
457,0.0
458,0.0
459,0.0
460,0.0
461,0.0
462,0.0
463,0.0
464,0.0
465,0.0
466,0.0
467,0.0
468,0.0
469,0.0
470,0.0
471,21.68327702028669
606,20.147477770374564
669,20.18965292030215
732,20.134940793155252
795,20.24816343516462
858,20.99263580048288
2,2, 6, 2, 0, 2, 0.00,60.00,Wednesday
7,13.3
8,199584.0
129,86184.0
166,199584.0
203,86184.0
240,373464.00000000006
277,60825.600000000006
350,26265.600000000002
375,76032.0
400,26265.600000000002
425,113817.6
450,0.0
451,0.0
452,0.0
453,0.0
454,0.0
455,0.0
456,0.0
457,0.0
458,0.0
459,0.0
460,0.0
461,0.0
462,0.0
463,0.0
464,0.0
465,0.0
466,0.0
467,0.0
468,0.0
469,0.0
470,0.0
471,21.01826699164231
606,20.006818530155016
669,20.041124220420507
732,19.995733793571446
795,20.074913344776732
858,20.804567250818224
2,2, 6, 2, 0, 3, 0.00,60.00,Wednesday
7,13.3
8,199584.0
129,86184.0
166,199584.0
203,86184.0
240,373464.00000000006
277,60825.600000000006
350,26265.600000000002
375,76032.0
400,26265.600000000002
425,113817.6
450,0.0
451,0.0
452,0.0
453,0.0
454,0.0
455,0.0
456,0.0
457,0.0
458,0.0
459,0.0
460,0.0
461,0.0
462,0.0
463,0.0
464,0.0
465,0.0
466,0.0
467,0.0
468,0.0
469,0.0
470,0.0
471,20.534827313784085
606,19.897812172624924
669,19.927999603978442
732,19.888844987781567
795,19.947498106043888
858,20.663184692823542
2,2, 6, 2, 0, 4, 0.00,60.00,Wednesday
7,12.9875
8,199584.0
129,86184.0
166,199584.0
203,86184.0
240,373464.00000000006
277,60825.600000000006
350,26265.600000000002
375,76032.0
400,26265.600000000002
425,113817.6
450,0.0
451,0.0
452,0.0
453,0.0
454,0.0
455,0.0
456,0.0
457,0.0
458,0.0
459,0.0
460,0.0
461,0.0
462,0.0
463,0.0
464,0.0
465,0.0
466,0.0
467,0.0
468,0.0
469,0.0
470,0.0
471,20.155843801941693
606,19.79938749811096
669,19.82670676428226
732,19.789511851919713
795,19.837911753420332
858,20.548491714992018
2,2, 6, 2, 0, 5, 0.00,60.00,Wednesday
7,12.425
8,199584.0
129,86184.0
166,199584.0
203,86184.0
240,373464.00000000006
277,60825.600000000006
350,26265.600000000002
375,76032.0
400,26265.600000000002
425,113817.6
450,0.0
451,0.0
452,70373.29302970234
453,825054.3800569936
454,0.0
455,0.0
456,89331.29224428993
457,97246.05240316325
458,387266.6127521632
459,1054629.6400382412
460,713334.9461524001
461,87384.05551621356
462,242571.63131042325
463,553600.2654850921
464,1552745.5122942897
465,124202.85389339259
466,29278157.179509208
467,580022.8249415152
468,1660800.7964552755
469,4441870.358940221
470,372608.5616801777
471,19.84069061002898
606,19.716193993226135
669,19.822161805434146
732,19.855472507840126
795,19.75500225639093
858,20.471242654243696
2,2, 6, 2, 0, 6, 0.00,60.00,Wednesday
7,13.2625
8,199584.0
129,86184.0
166,199584.0
203,86184.0
240,373464.00000000006
277,60825.600000000006
350,26265.600000000002
375,76032.0
400,26265.600000000002
425,113817.6
450,0.0
451,0.0
452,1396329.0495695742
453,4841842.885306427
454,0.0
455,0.0
456,357797.9924335659
457,370771.4467474022
458,1493265.7177841791
459,3077394.5265459055
460,2079655.684624765
461,317155.7019625242
462,881815.7191506727
463,2043013.1844713856
464,4551448.607367017
465,450787.53875183663
466,129106390.61041328
467,2160252.396023282
468,6129039.553414154
469,13020127.573533516
470,1352362.6162555092
471,19.64656880085768
606,19.78009560378841
669,20.25205967057385
732,20.469391911235043
795,19.830857065214158
858,20.432940782288174
2,2, 6, 2, 0, 7, 0.00,60.00,Wednesday
7,16.337500000000002
8,199584.0
129,86184.0
166,199584.0
203,86184.0
240,373464.00000000006
277,60825.600000000006
350,26265.600000000002
375,76032.0
400,26265.600000000002
425,113817.6
450,0.0
451,318600.4658882308
452,3724188.1851548497
453,8525199.022374215
454,154213.56792168034
455,0.0
456,663167.3834001743
457,637978.4879498596
458,2971086.2482070727
459,4391389.881323265
460,3021007.730112259
461,502345.48971574823
462,1401163.8860868434
463,3947095.2542225253
464,6837906.569590007
465,714006.0402849263
466,276595789.9156883
467,3580521.6801415784
468,11841285.762667574
469,19560896.66218781
470,2142018.120854778
471,19.96970261355272
606,22.08934734499504
669,22.15866399282117
732,22.16670310052775
795,22.11557784041301
858,21.95806229571481
2,2, 6, 2, 0, 8, 0.00,60.00,Wednesday
7,19.175
8,199584.0
129,86184.0
166,199584.0
203,86184.0
240,373464.00000000006
277,60825.600000000006
350,26265.600000000002
375,76032.0
400,26265.600000000002
425,113817.6
450,0.0
451,1956008.4956112988
452,6289192.305069966
453,10085165.21127199
454,745674.5138557743
455,0.0
456,1095544.5488265194
457,1010917.0111390438
458,4599038.190283926
459,4555027.654299305
460,3317928.253231772
461,759408.6104809857
462,2124391.7203367823
463,6078401.036865618
464,8104152.14300845
465,1079381.3143114368
466,518625060.3777349
467,5569129.539812294
468,18235203.11059685
469,23183189.327130735
470,3238143.9429343096
471,20.511550549899596
606,22.199398211566074
669,22.221598841626008
732,22.199681203148923
795,22.198606347016085
858,22.201169396939605
2,2, 6, 2, 0, 9, 0.00,60.00,Wednesday
7,21.0625
8,3592512.0
129,1551312.0
166,3592512.0
203,1551312.0
240,6722352.000000001
277,1216512.0
350,525312.0
375,1520640.0000000002
400,525312.0
425,2276352.0
450,0.0
451,3265953.2323401123
452,6705288.940746965
453,7197468.245138731
454,1262278.3865001902
455,0.0
456,1415566.1040739082
457,1299296.4497771335
458,4756458.671316705
459,3093955.2001423906
460,2324251.17139198
461,972909.2768168455
462,2723897.1703205486
463,6430931.727894651
464,6422505.880035985
465,1382839.3297400596
466,700436812.3159075
467,7157401.925364553
468,19292795.183683947
469,18372578.296168514
470,4148517.989220177
471,21.796030053615922
606,22.63398872992651
669,23.728646213158285
732,23.60502440053236
795,22.277197123764413
858,22.797404813181195
2,2, 6, 2, 0,10, 0.00,60.00,Wednesday
7,22.3875
8,3792095.9999999995
129,1637496.0
166,3792095.9999999995
203,1637496.0
240,7095816.000000001
277,2737152.0
350,1181952.0
375,3421440.0
400,1181952.0
425,5121792.0
450,0.0
451,3788974.4962447267
452,6157690.76245415
453,4404962.13784698
454,1440006.9419626899
455,0.0
456,1581771.0534932069
457,1426024.7570057376
458,4259866.368781755
459,2070737.8534446545
460,1457819.125005909
461,1043828.0390141925
462,2972292.5005945046
463,6085243.871463163
464,3948523.962442919
465,1483639.3281775664
466,845404354.0865688
467,7843316.218932524
468,18255731.61438948
469,11295367.728627697
470,4450917.984532697
471,23.361672634364403
606,23.738992625701595
669,23.898884686151007
732,23.89898436203778
795,23.175643104156983
858,23.80073980217623
2,2, 6, 2, 0,11, 0.00,60.00,Wednesday
7,23.799999999999997
8,3991680.0
129,1723680.0
166,3991680.0
203,1723680.0
240,7469280.000000001
277,2737152.0
350,1181952.0
375,3421440.0
400,1181952.0
425,5121792.0
450,0.0
451,4542391.089490042
452,4721302.393330316
453,4676239.1490347525
454,1708807.164950762
455,0.0
456,1732592.6325121154
457,1642693.7092723425
458,3089822.8547078483
459,2112091.243589178
460,1456658.657969297
461,1171671.0548377924
462,5063405.482763043
463,4916947.709385682
464,3341652.8510802826
465,1665348.3061121406
466,919212337.0869622
467,10931179.517542468
468,14750843.128157042
469,9559318.401860807
470,4996044.91833642
471,24.72669188516512
606,23.89855845288257
669,23.8987083492446
732,23.898616350977427
795,23.811640424724118
858,23.89873329110594
2,2, 6, 2, 0,12, 0.00,60.00,Wednesday
7,24.4
8,3792095.9999999995
129,1637496.0
166,3792095.9999999995
203,1637496.0
240,7095816.000000001
277,2737152.0
350,1181952.0
375,3421440.0
400,1181952.0
425,5121792.0
450,0.0
451,4840594.412741393
452,3011711.911278233
453,5174369.48152577
454,1871334.3883656918
455,0.0
456,1807426.9414288788
457,1712571.952433805
458,1930936.5187715457
459,2267064.549560624
460,1563540.0290192596
461,1257641.6479314412
462,7382479.976019536
463,3384060.17394269
464,3586844.431374315
465,1787542.1428488388
466,927594792.3505987
467,14141345.034838036
468,10152180.521828067
469,10260727.102865867
470,5362626.428546514
471,25.71755883536293
606,23.898228382753135
669,23.898512438064117
732,23.898289296256763
795,23.89831912823768
858,23.898055348714
2,2, 6, 2, 0,13, 0.00,60.00,Wednesday
7,24.775
8,3193344.0
129,1378944.0
166,3193344.0
203,1378944.0
240,5975424.000000001
277,2737152.0
350,1181952.0
375,3421440.0
400,1181952.0
425,5121792.0
450,0.0
451,4627083.389916461
452,1821525.3036716832
453,4857784.495966416
454,1856566.3168183677
455,0.0
456,1727902.7117661978
457,1564368.1799605782
458,1209963.2078648906
459,2088267.1205759577
460,1440227.731909133
461,1215057.79663846
462,9016265.335850183
463,1862630.0027139843
464,3303959.428112282
465,1870014.364158128
466,931369341.8991847
467,15860600.082631003
468,5587890.008141952
469,9451490.49517366
470,5610043.092474381
471,26.442283178543033
606,23.898722678411517
669,23.89896438857341
732,23.898755381042893
795,23.898764060740426
858,23.89861816999945
2,2, 6, 2, 0,14, 0.00,60.00,Wednesday
7,25.0
8,3592512.0
129,1551312.0
166,3592512.0
203,1551312.0
240,6722352.000000001
277,2737152.0
350,1181952.0
375,3421440.0
400,1181952.0
425,5121792.0
450,0.0
451,4238719.559206078
452,1688796.228815528
453,4703031.232826924
454,2555708.9057765445
455,0.0
456,1459962.9852398755
457,1508405.848887796
458,1104086.4580667643
459,1990261.1151992988
460,1372635.3413349958
461,1603557.0017440943
462,7456176.704079301
463,1569287.305640054
464,3148898.869869845
465,2680763.9301450117
466,658351873.1808109
467,13306652.9565745
468,4707861.916920161
469,9007915.619545706
470,8042291.790435032
471,26.878010915149865
606,23.899075344270184
669,23.899260363131038
732,23.89915380292363
795,23.899005299983166
858,23.898596948923128
2,2, 6, 2, 0,15, 0.00,60.00,Wednesday
7,25.0
8,3991680.0
129,1723680.0
166,3991680.0
203,1723680.0
240,7469280.000000001
277,2433024.0
350,1050624.0
375,3041280.0000000005
400,1050624.0
425,4552704.0
450,0.0
451,3244156.1856057323
452,1605526.6208450585
453,4446182.670163074
454,1987683.610923712
455,0.0
456,1000281.8221679148
457,1200621.9452520194
458,1021723.5668564131
459,1841791.1665701133
460,1270239.179817162
461,1274411.9543338143
462,3679303.0457892553
463,1452221.2564299828
464,2913996.6000733213
465,1838268.9006223432
466,353661928.24443126